
 Primary working directories    : /global/cscratch1/sd/mwelborn
 Secondary working directories  : /global/cscratch1/sd/mwelborn
 Wavefunction directory         : /global/homes/m/mwelborn/wfu/
 Main file repository           : /global/cscratch1/sd/mwelborn/

 SHA1      : 2873118e99aab1bc19f5b6fc1784693c06d15c95
 NAME      : 2015.1.8
 ARCHNAME  : linux/x86_64
 FC        : /opt/cray/pe/craype/2.5.5/bin/ftn
 BLASLIB   : -Wl,-_start-group /opt/intel/compilers_and_libraries_2016.3.210/linux/mkl/lib/intel64/libmkl_intel_ilp64.a /opt/intel/compilers_and_libraries_2016.3.210/linux/mkl/lib/intel64/libmkl_intel_thread.a /opt/intel/compilers_and_libraries_2016.3.210/linux/mkl/lib/intel64/libmkl_core.a -Wl,-_end-group
 id        : lbl

 Nodes     nprocs
 nid00221    31
 Number of processes for MPI-2 version of Molpro:   nprocs(total)=   32   nprocs(compute)=   31   nprocs(helper)=    1

 Using customized tuning parameters: mindgm=8; mindgv=16; mindgc=4; mindgr=1; noblas=0; minvec=7
 default implementation of scratch files=sf  

 memory,400,m
 symmetry;nosym
 zsymel=nosym
 
 {gthresh,grid=1d-10}
 nogprint,distance,angles
 basis={default=def2-TZVP
 ecp,Au,ECP60MDF
 }
 
 
 geometry=../../structs/t2b/0308.xyz
 Including file /global/u2/m/mwelborn/work/surfaces/au34/pbe/t2b/../../structs/t2b/0308.xyz
 {df-ks,df_basis=def2-tzvpp,pbe,maxiter=300;shift,-1.0,-0.5;save,2100.2}
 
 {pop}
                                                                                 !{nbo,with_core=0;start,2100.2;save,2200.2}
 {ibba;orbital,2100.2}
 

 Variables initialized (889), CPU time= 0.01 sec
 Commands  initialized (702), CPU time= 0.00 sec, 572 directives.
 Default parameters read. Elapsed time= 0.41 sec

 Checking input...
 Passed
1


                                         ***  PROGRAM SYSTEM MOLPRO  ***
                                       Copyright, TTI GmbH Stuttgart, 2015
                                    Version 2015.1 linked Sep  7 2016 23:09:38


 **********************************************************************************************************************************
 LABEL *                                                                                 
  64 bit mpp version                                                                     DATE: 16-Mar-17          TIME: 08:08:24  
 **********************************************************************************************************************************

 SHA1:             2873118e99aab1bc19f5b6fc1784693c06d15c95
 **********************************************************************************************************************************

 Variable memory set to  400000000 words,  buffer space   230000 words

 SETTING ZSYMEL         =    NOSYM

 THRESHOLDS:

 ZERO    =  1.00D-12  ONEINT  =  1.00D-12  TWOINT  =  1.00D-11  PREFAC  =  1.00D-14  LOCALI  =  1.00D-09  EORDER  =  1.00D-04
 ENERGY  =  0.00D+00  ETEST   =  0.00D+00  EDENS   =  0.00D+00  THRDEDEF=  1.00D-06  GRADIENT=  1.00D-02  STEP    =  1.00D-03
 ORBITAL =  1.00D-05  CIVEC   =  1.00D-05  COEFF   =  1.00D-04  PRINTCI =  5.00D-02  PUNCHCI =  9.90D+01  OPTGRAD =  3.00D-04
 OPTENERG=  1.00D-06  OPTSTEP =  3.00D-04  THRGRAD =  1.00D-10  COMPRESS=  1.00D-11  VARMIN  =  1.00D-07  VARMAX  =  1.00D-03
 THRDOUB =  0.00D+00  THRDIV  =  1.00D-05  THRRED  =  1.00D-07  THRPSP  =  1.00D+00  THRDC   =  1.00D-10  THRCS   =  1.00D-10
 THRNRM  =  1.00D-08  THREQ   =  0.00D+00  THRDE   =  1.00D+00  THRREF  =  1.00D-05  SPARFAC =  1.00D+00  THRDLP  =  1.00D-07
 THRDIA  =  1.00D-10  THRDLS  =  1.00D-07  THRGPS  =  0.00D+00  THRKEX  =  0.00D+00  THRDIS  =  2.00D-01  THRVAR  =  1.00D-10
 THRLOC  =  1.00D-06  THRGAP  =  1.00D-06  THRLOCT = -1.00D+00  THRGAPT = -1.00D+00  THRORB  =  1.00D-06  THRMLTP =  0.00D+00
 THRCPQCI=  1.00D-10  KEXTA   =  0.00D+00  THRCOARS=  0.00D+00  SYMTOL  =  1.00D-06  GRADTOL =  1.00D-06  THROVL  =  1.00D-08
 THRORTH =  1.00D-08  GRID    =  1.00D-10  GRIDMAX =  1.00D-03  DTMAX   =  0.00D+00  THROCCDE=  1.00D-01  THROCCDE=  1.00D-01



 SETTING BASIS          =    USERDEF
 ZSYMEL=NOSYM
 

Geometry recognized as XYZ



 Recomputing integrals since basis changed


 Using spherical harmonics

 Library entry Au   ECP ECP60MDF             selected for group  1
 Library entry AU     S def2-TZVP            selected for orbital group  1
 Library entry AU     P def2-TZVP            selected for orbital group  1
 Library entry AU     D def2-TZVP            selected for orbital group  1
 Library entry AU     F def2-TZVP            selected for orbital group  1
 Library entry H      S def2-TZVP            selected for orbital group  2
 Library entry H      P def2-TZVP            selected for orbital group  2
 Library entry CL     S def2-TZVP            selected for orbital group  3
 Library entry CL     P def2-TZVP            selected for orbital group  3
 Library entry CL     D def2-TZVP            selected for orbital group  3
 Library entry CL     F def2-TZVP            selected for orbital group  3


 PROGRAM * SEWARD (Integral evaluation for generally contracted gaussian basis sets)     Author: Roland Lindh, 1990

 Geometry written to block  1 of record 700


 Point group  C1  



 ATOMIC COORDINATES

 NR  ATOM    CHARGE       X              Y              Z

   1  AU     19.00   50.093336456   20.022498830    0.000000000
   2  AU     19.00   57.800017537   20.022498830    0.000000000
   3  AU     19.00   46.239995915   26.696685234    0.000000000
   4  AU     19.00   53.946676996   26.696685234    0.000000000
   5  AU     19.00   61.653327886   26.696685234    0.000000000
   6  AU     19.00   42.386655374   33.370841447    0.000000000
   7  AU     19.00   50.093336456   33.370841447    0.000000000
   8  AU     19.00   57.800017537   33.370841447    0.000000000
   9  AU     19.00   65.506668427   33.370841447    0.000000000
  10  AU     19.00   46.239995915   40.045027851    0.000000000
  11  AU     19.00   53.946676996   40.045027851    0.000000000
  12  AU     19.00   61.653327886   40.045027851    0.000000000
  13  AU     19.00   50.093336456   46.719184064    0.000000000
  14  AU     19.00   57.800017537   46.719184064    0.000000000
  15  AU     19.00   46.239995915   22.247227631   -6.292454111
  16  AU     19.00   53.946676996   22.247227631   -6.292454111
  17  AU     19.00   61.653327886   22.247227631   -6.292454111
  18  AU     19.00   42.386655374   28.921414035   -6.292454111
  19  AU     19.00   50.093336456   28.921414035   -6.292454111
  20  AU     19.00   57.800017537   28.921414035   -6.292454111
  21  AU     19.00   65.506668427   28.921414035   -6.292454111
  22  AU     19.00   46.239995915   35.595570248   -6.292454111
  23  AU     19.00   53.946676996   35.595570248   -6.292454111
  24  AU     19.00   61.653327886   35.595570248   -6.292454111
  25  AU     19.00   50.093336456   42.269756652   -6.292454111
  26  AU     19.00   57.800017537   42.269756652   -6.292454111
  27  AU     19.00   53.946676996   48.943912866   -6.292454111
  28  AU     19.00   50.093336456   24.471956433  -12.584938412
  29  AU     19.00   57.800017537   24.471956433  -12.584938412
  30  AU     19.00   46.239995915   31.146112646  -12.584938412
  31  AU     19.00   53.946676996   31.146112646  -12.584938412
  32  AU     19.00   61.653327886   31.146112646  -12.584938412
  33  AU     19.00   50.093336456   37.820299050  -12.584938412
  34  AU     19.00   57.800017537   37.820299050  -12.584938412
  35  H       1.00   52.036185911   33.370841447    4.337408119
  36  CL     17.00   52.019546746   33.370841447    8.019078314

 NUCLEAR CHARGE:                  664
 NUMBER OF PRIMITIVE AOS:        2627
 NUMBER OF SYMMETRY AOS:         2315
 NUMBER OF CONTRACTIONS:         1403   (1403A   )
 NUMBER OF CORE ORBITALS:         141   ( 141A   )
 NUMBER OF VALENCE ORBITALS:      209   ( 209A   )


 LX: A            LY: A            LZ: A  


 NUCLEAR REPULSION ENERGY16407.98897723


 
 Eigenvalues of metric

         1 0.215E-02 0.223E-02 0.269E-02 0.287E-02 0.296E-02 0.311E-02 0.325E-02 0.326E-02


 OPERATOR DM      FOR CENTER  0  COORDINATES:    0.000000    0.000000    0.000000


 **********************************************************************************************************************************
 DATASETS  * FILE   NREC   LENGTH (MB)   RECORD NAMES
              1      19      122.67       500      610      700      900      950      970     1000      129      960     1100   
                                          VAR    BASINP    GEOM    SYMINP    ZMAT    AOBASIS   BASIS     P2S    ABASIS      S 
                                         1400     1410     1420     1200     1210     1080     1700     1600     1650   
                                           T        V       ECP      H0       H01     AOSYM    OPER      SMH    MOLCAS    

 PROGRAMS   *        TOTAL       INT
 CPU TIMES  *       208.85    208.72
 REAL TIME  *       225.84 SEC
 DISK USED  *         0.00 MB      
 GA USED    *         0.08 MB       (max)       0.00 MB       (current)
 **********************************************************************************************************************************

 Density functional group PBE=PBEX+PBEC
 Functional: PBEX(Automatically generated (new) PBEX)                          Gradient terms: 1
 Functional: PBEC(Automatically generated (new) PBEC)                          Gradient terms: 1
 Use grid at  1800.2
 
 Functional: PBEX                      Factor:  1.0000
 Functional: PBEC                      Factor:  1.0000
 
 Generated new metagrid on record  1800.2 with target accuracy 1.0D-10 and 1322156 points in CPU time    2.1
 Computed new grid on record 1800.1 in CPU time    2.6
 1126657 words reserved for DFT integration

 PROGRAM * RKS-SCF (Restricted closed shell Kohn-Sham)     Authors: W. Meyer, H.-J. Werner, P.J. Knowles, 1993

 NUMBER OF ELECTRONS:     332+  332-    SPACE SYMMETRY=1    SPIN SYMMETRY: Singlet 
 CONVERGENCE THRESHOLDS:    1.00E-05 (Density)    1.33E-05 (Energy)
 INTEGRAL THRESHOLDS:       1.00E-11 (Initial)    1.00E-11 (Final)
 MAX. NUMBER OF ITERATIONS:      300
 INTERPOLATION TYPE:            DIIS
 INTERPOLATION STEPS:              2 (START)      1 (STEP)
 LEVEL SHIFTS:                 -1.00 (CLOSED) -0.50 (OPEN) 



 Use fine grid record 1800.2 for energy threshold  1.0D-10
 
 Basis set DEF2-TZVPP/JFIT generated.    Number of basis functions:   3088 
 Coulomb fitting
 Screening thresholds:    THRAO_COUL= 1.0D-14    THRAO= 1.0D-12    THROV= 1.0D-12

 Reserved 91 MW to cache 100.0% of significant integrals (2821 MW global). CPU: 1.3 sec

 Orbital guess generated from atomic densities. Full valence occupancy:  332
 Using density fitting in orbital guess
 

 Molecular orbital dump at record        2100.2

 Initial occupancy: 332

 ITERATION   DDIFF            GRAD            ENERGY        2-EL.EN.            DIPOLE MOMENTS         DIIS   CPU(IT)  CPU(TOT)  ORB.
    1      0.000D+00      0.000D+00     -5073.93459002  41342.670708    0.70540   -0.24736   -1.63126    0      3.3      9.1     start
    2      0.000D+00      0.293D-02     -5075.92334038  41068.695259    0.38596   -0.05774   -1.92004    1      3.6     12.7     diag
    3      0.315D-02      0.113D-02     -5076.12373558  41107.870326    0.36971   -0.04682   -1.88227    2      6.5     19.2     diag
    4      0.921D-03      0.228D-03     -5076.16239224  41094.523969    0.28724   -0.02747   -1.96448    3      3.6     22.9     diag
    5      0.404D-03      0.103D-03     -5076.17674886  41088.113321    0.26086   -0.03902   -1.99182    4      3.4     26.3     diag
    6      0.239D-03      0.608D-04     -5076.18247046  41084.863697    0.24106   -0.05415   -2.00848    5      3.4     29.7     diag
    7      0.141D-03      0.461D-04     -5076.18892930  41082.275311    0.23117   -0.08184   -2.01106    6      4.1     33.8     diag
    8      0.218D-03      0.304D-04     -5076.19241793  41081.180493    0.22517   -0.09858   -2.00999    7      4.4     38.3     diag
    9      0.143D-03      0.217D-04     -5076.19444856  41080.632655    0.22296   -0.10418   -2.01746    8      3.6     41.9     diag
   10      0.105D-03      0.155D-04     -5076.19564707  41080.253942    0.22283   -0.10706   -2.02120    9      3.9     45.8     orth
   11      0.940D-04      0.104D-04     -5076.19615969  41080.107674    0.22383   -0.10582   -2.02502    9      3.5     49.3     diag
   12      0.622D-04      0.700D-05     -5076.19639853  41079.940042    0.22502   -0.10339   -2.02282    9      3.4     52.7     diag
   13      0.457D-04      0.463D-05     -5076.19647289  41079.851820    0.22466   -0.10115   -2.02017    9      3.5     56.2     diag
   14      0.199D-04      0.384D-05     -5076.19652840  41079.783035    0.22467   -0.09910   -2.01658    9      3.6     59.8     diag
   15      0.167D-04      0.328D-05     -5076.19659016  41079.750101    0.22448   -0.09675   -2.01250    9      3.6     63.3     diag
   16      0.217D-04      0.282D-05     -5076.19662898  41079.738230    0.22461   -0.09607   -2.01131    9      3.4     66.8     diag
   17      0.152D-04      0.258D-05     -5076.19667464  41079.722035    0.22437   -0.09534   -2.01035    9      3.5     70.2     diag
   18      0.199D-04      0.233D-05     -5076.19672540  41079.670500    0.22412   -0.09517   -2.01043    9      3.7     74.0     diag
   19      0.255D-04      0.210D-05     -5076.19676792  41079.635349    0.22409   -0.09487   -2.01051    9      3.5     77.5     fixocc
   20      0.243D-04      0.191D-05     -5076.19680053  41079.605479    0.22408   -0.09448   -2.01002    9      4.2     81.6     orth
   21      0.205D-04      0.178D-05     -5076.19683970  41079.597013    0.22433   -0.09381   -2.00885    9      4.0     85.6     diag
   22      0.273D-04      0.162D-05     -5076.19687458  41079.579047    0.22426   -0.09307   -2.00734    9      3.8     89.5     diag
   23      0.273D-04      0.147D-05     -5076.19690919  41079.558024    0.22422   -0.09272   -2.00631    9      3.8     93.3     diag
   24      0.309D-04      0.130D-05     -5076.19693765  41079.536191    0.22409   -0.09245   -2.00526    9      3.5     96.8     diag
   25      0.304D-04      0.116D-05     -5076.19695681  41079.528671    0.22411   -0.09206   -2.00462    9      3.6    100.4     diag
   26      0.235D-04      0.104D-05     -5076.19697298  41079.524051    0.22400   -0.09149   -2.00382    9      3.5    103.9     diag
   27      0.222D-04      0.927D-06     -5076.19698383  41079.521579    0.22392   -0.09093   -2.00302    9      3.7    107.5     diag
   28      0.167D-04      0.849D-06     -5076.19699293  41079.512826    0.22379   -0.09064   -2.00215    9      3.6    111.2     diag
   29      0.151D-04      0.779D-06     -5076.19700193  41079.509741    0.22366   -0.09035   -2.00083    9      3.7    114.9     diag
   30      0.161D-04      0.706D-06     -5076.19700949  41079.504522    0.22360   -0.09025   -1.99936    9      3.8    118.7     orth
   31      0.152D-04      0.639D-06     -5076.19701703  41079.503746    0.22352   -0.09017   -1.99750    9      4.0    122.7     diag
   32      0.179D-04      0.570D-06     -5076.19702292  41079.492325    0.22337   -0.09015   -1.99594    9      3.4    126.1     diag
   33      0.167D-04      0.504D-06     -5076.19702786  41079.479060    0.22328   -0.09009   -1.99440    9      3.5    129.6     diag
   34      0.171D-04      0.434D-06     -5076.19703060  41079.468204    0.22324   -0.08996   -1.99330    9      3.6    133.3     diag
   35      0.118D-04      0.393D-06     -5076.19703246  41079.462369    0.22333   -0.08995   -1.99230    9      3.7    136.9     diag
   36      0.890D-05      0.357D-06     -5076.19703264  41079.462853    0.22332   -0.08996   -1.99220    0      3.5    140.5     orth

 Final occupancy: 332

 !RKS STATE 1.1 Energy              -5076.197032636170
 Nuclear energy                     16407.98897723
 One-electron energy               -41559.39542099
 Two-electron energy                20539.73142648
 Density functional                  -464.52201536     PBEX=-436.70546806 PBEC= -27.81654730
 Virial quotient                       -2.51751304
 !RKS STATE 1.1 Dipole moment           0.22331545    -0.08996075    -1.99219594
 Dipole moment /Debye                   0.56757407    -0.22864245    -5.06332534

 Orbital energies:

         1.1          2.1          3.1          4.1          5.1          6.1          7.1          8.1          9.1         10.1
   -100.619515    -9.129709    -6.954021    -6.943065    -6.943004    -3.983155    -3.980401    -3.978848    -3.978444    -3.978389

        11.1         12.1         13.1         14.1         15.1         16.1         17.1         18.1         19.1         20.1
     -3.978324    -3.977574    -3.977239    -3.976812    -3.975421    -3.974138    -3.974013    -3.973981    -3.973857    -3.973132

        21.1         22.1         23.1         24.1         25.1         26.1         27.1         28.1         29.1         30.1
     -3.971298    -3.971128    -3.970937    -3.970832    -3.970804    -3.970790    -3.970658    -3.970410    -3.970378    -3.970205

        31.1         32.1         33.1         34.1         35.1         36.1         37.1         38.1         39.1         40.1
     -3.970112    -3.969340    -3.969243    -3.969186    -3.968628    -3.967991    -3.966590    -3.966443    -3.965864    -2.225020

        41.1         42.1         43.1         44.1         45.1         46.1         47.1         48.1         49.1         50.1
     -2.224532    -2.224104    -2.222514    -2.222378    -2.220743    -2.220686    -2.220675    -2.220275    -2.220110    -2.220102

        51.1         52.1         53.1         54.1         55.1         56.1         57.1         58.1         59.1         60.1
     -2.220056    -2.219712    -2.219707    -2.219420    -2.219291    -2.219270    -2.219075    -2.219065    -2.218900    -2.218797

        61.1         62.1         63.1         64.1         65.1         66.1         67.1         68.1         69.1         70.1
     -2.218648    -2.218430    -2.217981    -2.217715    -2.217522    -2.217352    -2.217289    -2.216899    -2.216467    -2.216324

        71.1         72.1         73.1         74.1         75.1         76.1         77.1         78.1         79.1         80.1
     -2.216153    -2.216133    -2.215693    -2.215507    -2.215396    -2.215295    -2.215201    -2.215064    -2.214746    -2.214716

        81.1         82.1         83.1         84.1         85.1         86.1         87.1         88.1         89.1         90.1
     -2.214445    -2.214206    -2.214070    -2.213822    -2.213683    -2.213419    -2.212733    -2.212689    -2.212619    -2.212605

        91.1         92.1         93.1         94.1         95.1         96.1         97.1         98.1         99.1        100.1
     -2.212447    -2.212436    -2.212395    -2.212321    -2.212316    -2.212242    -2.212117    -2.212091    -2.212070    -2.212016

       101.1        102.1        103.1        104.1        105.1        106.1        107.1        108.1        109.1        110.1
     -2.211973    -2.211945    -2.211906    -2.211792    -2.211727    -2.211725    -2.211716    -2.211680    -2.211664    -2.211649

       111.1        112.1        113.1        114.1        115.1        116.1        117.1        118.1        119.1        120.1
     -2.211634    -2.211540    -2.211527    -2.211456    -2.211361    -2.211276    -2.211232    -2.211208    -2.210942    -2.210911

       121.1        122.1        123.1        124.1        125.1        126.1        127.1        128.1        129.1        130.1
     -2.210721    -2.210697    -2.210670    -2.210456    -2.210075    -2.210034    -2.210006    -2.209976    -2.209626    -2.209373

       131.1        132.1        133.1        134.1        135.1        136.1        137.1        138.1        139.1        140.1
     -2.209253    -2.208761    -2.208489    -2.208066    -2.207881    -2.207848    -2.207654    -2.207510    -2.207250    -2.207067

       141.1        142.1        143.1        144.1        145.1        146.1        147.1        148.1        149.1        150.1
     -2.206440    -0.674758    -0.322238    -0.289268    -0.281354    -0.281037    -0.280792    -0.279863    -0.279720    -0.279574

       151.1        152.1        153.1        154.1        155.1        156.1        157.1        158.1        159.1        160.1
     -0.279309    -0.279161    -0.278587    -0.277693    -0.277389    -0.277224    -0.276883    -0.276239    -0.275989    -0.275798

       161.1        162.1        163.1        164.1        165.1        166.1        167.1        168.1        169.1        170.1
     -0.275764    -0.275169    -0.275069    -0.274853    -0.274536    -0.274268    -0.274177    -0.274061    -0.273771    -0.273730

       171.1        172.1        173.1        174.1        175.1        176.1        177.1        178.1        179.1        180.1
     -0.273372    -0.273287    -0.272671    -0.272625    -0.272349    -0.272209    -0.272120    -0.271842    -0.271765    -0.271622

       181.1        182.1        183.1        184.1        185.1        186.1        187.1        188.1        189.1        190.1
     -0.271358    -0.271217    -0.270921    -0.270606    -0.270375    -0.270223    -0.270095    -0.270023    -0.269952    -0.269748

       191.1        192.1        193.1        194.1        195.1        196.1        197.1        198.1        199.1        200.1
     -0.269514    -0.269385    -0.269269    -0.269187    -0.269016    -0.268818    -0.268794    -0.268384    -0.268282    -0.268074

       201.1        202.1        203.1        204.1        205.1        206.1        207.1        208.1        209.1        210.1
     -0.267967    -0.267823    -0.267719    -0.267704    -0.267423    -0.267285    -0.267134    -0.267077    -0.266966    -0.266856

       211.1        212.1        213.1        214.1        215.1        216.1        217.1        218.1        219.1        220.1
     -0.266821    -0.266569    -0.266386    -0.266200    -0.266157    -0.266048    -0.265954    -0.265824    -0.265710    -0.265604

       221.1        222.1        223.1        224.1        225.1        226.1        227.1        228.1        229.1        230.1
     -0.265459    -0.265337    -0.265066    -0.265058    -0.264969    -0.264851    -0.264733    -0.264425    -0.264179    -0.264131

       231.1        232.1        233.1        234.1        235.1        236.1        237.1        238.1        239.1        240.1
     -0.264082    -0.264024    -0.263894    -0.263774    -0.263699    -0.263649    -0.263343    -0.263278    -0.263163    -0.263148

       241.1        242.1        243.1        244.1        245.1        246.1        247.1        248.1        249.1        250.1
     -0.263089    -0.263053    -0.262909    -0.262842    -0.262798    -0.262660    -0.262618    -0.262577    -0.262389    -0.262167

       251.1        252.1        253.1        254.1        255.1        256.1        257.1        258.1        259.1        260.1
     -0.262020    -0.262005    -0.261918    -0.261726    -0.261664    -0.261635    -0.261351    -0.261296    -0.261262    -0.261164

       261.1        262.1        263.1        264.1        265.1        266.1        267.1        268.1        269.1        270.1
     -0.260966    -0.260940    -0.260881    -0.260779    -0.260627    -0.260529    -0.260468    -0.260315    -0.260250    -0.260147

       271.1        272.1        273.1        274.1        275.1        276.1        277.1        278.1        279.1        280.1
     -0.260125    -0.259982    -0.259886    -0.259799    -0.259755    -0.259667    -0.259597    -0.259417    -0.259320    -0.259240

       281.1        282.1        283.1        284.1        285.1        286.1        287.1        288.1        289.1        290.1
     -0.259028    -0.258801    -0.258725    -0.258674    -0.258579    -0.258497    -0.258495    -0.258315    -0.258265    -0.258057

       291.1        292.1        293.1        294.1        295.1        296.1        297.1        298.1        299.1        300.1
     -0.258000    -0.257958    -0.257908    -0.257794    -0.257725    -0.257684    -0.257624    -0.257522    -0.257431    -0.257347

       301.1        302.1        303.1        304.1        305.1        306.1        307.1        308.1        309.1        310.1
     -0.257246    -0.257023    -0.256842    -0.256567    -0.256402    -0.256302    -0.256205    -0.255986    -0.255949    -0.255826

       311.1        312.1        313.1        314.1        315.1        316.1        317.1        318.1        319.1        320.1
     -0.255650    -0.255487    -0.255426    -0.255357    -0.255016    -0.254882    -0.250735    -0.245992    -0.240715    -0.236985

       321.1        322.1        323.1        324.1        325.1        326.1        327.1        328.1        329.1        330.1
     -0.233887    -0.233081    -0.232791    -0.232370    -0.224718    -0.222902    -0.218416    -0.213504    -0.213179    -0.211682

       331.1        332.1        333.1        334.1
     -0.207828    -0.206142    -0.204521    -0.203847

 HOMO    332.1    -0.206142 =      -5.6094eV
 LUMO    333.1    -0.204521 =      -5.5653eV
 LUMO-HOMO         0.001621 =       0.0441eV


 **********************************************************************************************************************************
 DATASETS  * FILE   NREC   LENGTH (MB)   RECORD NAMES
              1      21      122.74       500      610      700      900      950      970     1000      129      960     1100   
                                          VAR    BASINP    GEOM    SYMINP    ZMAT    AOBASIS   BASIS     P2S    ABASIS      S 
                                         1400     1410     1420     1200     1210     1080     1700     1600     1650     1800   
                                           T        V       ECP      H0       H01     AOSYM    OPER      SMH    MOLCAS    GRID   
                                          960(1)
                                        ABASIS    

              2       5       43.11       700     1000      520     1800     2100   
                                         GEOM     BASIS   MCVARS    GRID      RKS  

 PROGRAMS   *        TOTAL        KS       INT
 CPU TIMES  *       353.39    144.54    208.72
 REAL TIME  *       428.03 SEC
 DISK USED  *         9.55 GB      
 SF USED    *        61.79 MB      
 GA USED    *        42.37 MB       (max)      42.37 MB       (current)
 **********************************************************************************************************************************


 PROGRAM * POP (Mulliken population analysis)

 
 Density matrix read from record         2100.2  Type=RKS/CHARGE (state 1.1)
 
 Population analysis by basis function type

 Unique atom        s        p        d        f        g    Total    Charge
   1  AU      2.92987  6.08271  9.94558  0.00006  0.00000 18.95822  + 0.04178
   2  AU      2.92987  6.08321  9.94576  0.00006  0.00000 18.95889  + 0.04111
   3  AU      2.85540  6.16097  9.93693  0.00007  0.00000 18.95336  + 0.04664
   4  AU      2.75584  6.28604  9.93047  0.00007  0.00000 18.97242  + 0.02758
   5  AU      2.86967  6.16072  9.93438  0.00007  0.00000 18.96484  + 0.03516
   6  AU      2.90252  6.08143  9.94913  0.00006  0.00000 18.93313  + 0.06687
   7  AU      2.96271  6.40958  9.85798  0.00015  0.00000 19.23043  - 0.23043
   8  AU      2.81430  6.28568  9.91310  0.00007  0.00000 19.01314  - 0.01314
   9  AU      2.91829  6.07989  9.94787  0.00006  0.00000 18.94610  + 0.05390
  10  AU      2.88334  6.14212  9.94521  0.00006  0.00000 18.97072  + 0.02928
  11  AU      2.80707  6.25187  9.92132  0.00007  0.00000 18.98032  + 0.01968
  12  AU      2.89940  6.13705  9.94258  0.00006  0.00000 18.97909  + 0.02091
  13  AU      2.91642  6.07871  9.95114  0.00006  0.00000 18.94633  + 0.05367
  14  AU      2.92714  6.07908  9.94909  0.00005  0.00000 18.95537  + 0.04463
  15  AU      2.90810  6.10693  9.94140  0.00006  0.00000 18.95648  + 0.04352
  16  AU      2.81146  6.27869  9.93206  0.00007  0.00000 19.02227  - 0.02227
  17  AU      2.91208  6.10327  9.94188  0.00006  0.00000 18.95730  + 0.04270
  18  AU      2.94709  6.10828  9.93155  0.00005  0.00000 18.98698  + 0.01302
  19  AU      2.74403  6.45605  9.91220  0.00008  0.00000 19.11237  - 0.11237
  20  AU      2.74363  6.46461  9.91206  0.00008  0.00000 19.12037  - 0.12037
  21  AU      2.95162  6.10591  9.93078  0.00005  0.00000 18.98837  + 0.01163
  22  AU      2.82041  6.27564  9.92411  0.00007  0.00000 19.02023  - 0.02023
  23  AU      2.70792  6.51405  9.91661  0.00009  0.00000 19.13867  - 0.13867
  24  AU      2.82270  6.28399  9.92354  0.00007  0.00000 19.03030  - 0.03030
  25  AU      2.86822  6.21286  9.92834  0.00006  0.00000 19.00948  - 0.00948
  26  AU      2.85183  6.21445  9.93207  0.00006  0.00000 18.99842  + 0.00158
  27  AU      2.96600  6.04943  9.95473  0.00005  0.00000 18.97022  + 0.02978
  28  AU      2.92666  6.10816  9.93567  0.00006  0.00000 18.97055  + 0.02945
  29  AU      2.93961  6.10694  9.93242  0.00006  0.00000 18.97903  + 0.02097
  30  AU      2.90993  6.10948  9.93870  0.00006  0.00000 18.95817  + 0.04183
  31  AU      2.80825  6.29047  9.93375  0.00007  0.00000 19.03253  - 0.03253
  32  AU      2.89952  6.11166  9.94080  0.00006  0.00000 18.95205  + 0.04795
  33  AU      2.90611  6.11001  9.93615  0.00006  0.00000 18.95233  + 0.04767
  34  AU      2.91180  6.10930  9.93501  0.00006  0.00000 18.95617  + 0.04383
  35  H       0.78280  0.00981  0.00000  0.00000  0.00000  0.79261  + 0.20739
  36  CL      5.98660 11.33559  0.00981  0.00073  0.00000 17.33273  - 0.33273


 **********************************************************************************************************************************
 DATASETS  * FILE   NREC   LENGTH (MB)   RECORD NAMES
              1      21      122.74       500      610      700      900      950      970     1000      129      960     1100   
                                          VAR    BASINP    GEOM    SYMINP    ZMAT    AOBASIS   BASIS     P2S    ABASIS      S 
                                         1400     1410     1420     1200     1210     1080     1700     1600     1650     1800   
                                           T        V       ECP      H0       H01     AOSYM    OPER      SMH    MOLCAS    GRID   
                                          960(1)
                                        ABASIS    

              2       5       43.11       700     1000      520     1800     2100   
                                         GEOM     BASIS   MCVARS    GRID      RKS  

 PROGRAMS   *        TOTAL       POP        KS       INT
 CPU TIMES  *       353.58      0.17    144.54    208.72
 REAL TIME  *       428.43 SEC
 DISK USED  *         9.55 GB      
 SF USED    *        61.79 MB      
 GA USED    *        42.37 MB       (max)      42.37 MB       (current)
 **********************************************************************************************************************************


 PROGRAM * Intrinsic Basis Bonding Analysis (IBBA)          Author: G. Knizia

 Molecular orbitals read from record     2100.2  Type=RKS/CANONICAL (state 1.1)
 Fock matrix read from record            2100.2  Type=RKS/TOTAL (state 1.1)
 Density matrix read from record         2100.2  Type=RKS/CHARGE (state 1.1)
 Orbital energies read from record       2100.2  Type=RKS/CANONICAL (state 1.1)

 Number of core orbitals:         141 ( 141 )
 Number of closed-shell orbitals: 191 ( 191 )
 
 Basis set MINAO-AUTO-PP generated.      Number of basis functions:   350 

 Polarized AO type:                A = (O Ot + (1-O)(1-Ot)) P12
 Orthogonalization method:         Symmetric (Loewdin)
 Localization functional:          L = sum[A,i] <i|n_A|i>^4 -> max
 
 Localization group 1: 332 orbitals, occupancy  2.000
 Iterative localization: IB/PM,  121 iter; Final gradient 0.91E-08

 Total charge composition:

   CEN ATOM         s          p          d       ELECTRONS ->P.CHARGE
     1  AU       3.06708    5.99995    9.96264     19.02967   -0.02967
     2  AU       3.06746    5.99995    9.96286     19.03027   -0.03027
     3  AU       3.01033    5.99995    9.95602     18.96630    0.03370
     4  AU       2.94535    5.99996    9.95113     18.89644    0.10356
     5  AU       3.02948    5.99995    9.95381     18.98324    0.01676
     6  AU       3.05022    5.99994    9.96706     19.01722   -0.01722
     7  AU       3.16862    5.99972    9.86836     19.03670   -0.03670
     8  AU       3.03022    5.99996    9.93665     18.96683    0.03317
     9  AU       3.06150    5.99994    9.96567     19.02711   -0.02711
    10  AU       3.03494    5.99995    9.96225     18.99713    0.00287
    11  AU       3.01030    5.99996    9.94388     18.95413    0.04587
    12  AU       3.05314    5.99995    9.95978     19.01287   -0.01287
    13  AU       3.03854    5.99995    9.96739     19.00588   -0.00588
    14  AU       3.04976    5.99995    9.96568     19.01538   -0.01538
    15  AU       3.05399    5.99994    9.95995     19.01388   -0.01388
    16  AU       2.98388    5.99996    9.95221     18.93605    0.06395
    17  AU       3.05816    5.99994    9.96057     19.01867   -0.01867
    18  AU       3.09843    5.99995    9.95158     19.04996   -0.04996
    19  AU       2.98871    5.99996    9.93893     18.92760    0.07240
    20  AU       2.98234    5.99996    9.93802     18.92032    0.07968
    21  AU       3.10462    5.99995    9.95110     19.05568   -0.05568
    22  AU       3.00980    5.99995    9.94647     18.95622    0.04378
    23  AU       2.93999    5.99996    9.94114     18.88109    0.11891
    24  AU       3.00428    5.99996    9.94491     18.94915    0.05085
    25  AU       3.03928    5.99995    9.94887     18.98810    0.01190
    26  AU       3.02083    5.99995    9.95221     18.97299    0.02701
    27  AU       3.06759    5.99995    9.96977     19.03732   -0.03732
    28  AU       3.08386    5.99994    9.95585     19.03966   -0.03966
    29  AU       3.09952    5.99994    9.95308     19.05254   -0.05254
    30  AU       3.06827    5.99994    9.95840     19.02661   -0.02661
    31  AU       2.98080    5.99996    9.95464     18.93540    0.06460
    32  AU       3.05589    5.99994    9.96027     19.01610   -0.01610
    33  AU       3.07515    5.99994    9.95681     19.03191   -0.03191
    34  AU       3.08069    5.99994    9.95579     19.03642   -0.03642
    35   H       0.88527                            0.88527    0.11473
    36  CL       5.97706   11.35284                17.32990   -0.32990

 Total charge composition, AO contributions:

   CEN ATOM SHL      SPHERICAL COMPONENTS
     1  AU  1s       1.99939
     1  AU  2s       1.06769
     1  AU  2p       1.99999    1.99998    1.99998
     1  AU  3d       1.99055    1.99050    1.99139    1.99173    1.99846

     2  AU  1s       1.99939
     2  AU  2s       1.06807
     2  AU  2p       1.99999    1.99998    1.99998
     2  AU  3d       1.99067    1.99044    1.99113    1.99210    1.99852

     3  AU  1s       1.99925
     3  AU  2s       1.01108
     3  AU  2p       1.99998    1.99998    1.99998
     3  AU  3d       1.99361    1.98848    1.99420    1.98698    1.99275

     4  AU  1s       1.99911
     4  AU  2s       0.94624
     4  AU  2p       1.99999    1.99999    1.99999
     4  AU  3d       1.99439    1.98470    1.99249    1.98622    1.99333

     5  AU  1s       1.99926
     5  AU  2s       1.03022
     5  AU  2p       1.99999    1.99998    1.99998
     5  AU  3d       1.99361    1.98687    1.99408    1.98657    1.99268

     6  AU  1s       1.99938
     6  AU  2s       1.05084
     6  AU  2p       1.99998    1.99998    1.99998
     6  AU  3d       1.99295    1.99255    1.99651    1.99131    1.99374

     7  AU  1s       1.99878
     7  AU  2s       1.16985
     7  AU  2p       1.99995    1.99998    1.99978
     7  AU  3d       1.95297    1.98144    1.96422    1.97702    1.99271

     8  AU  1s       1.99918
     8  AU  2s       1.03105
     8  AU  2p       1.99999    1.99998    1.99998
     8  AU  3d       1.98953    1.98174    1.99093    1.98191    1.99254

     9  AU  1s       1.99938
     9  AU  2s       1.06212
     9  AU  2p       1.99998    1.99998    1.99998
     9  AU  3d       1.99348    1.99261    1.99649    1.98925    1.99383

    10  AU  1s       1.99930
    10  AU  2s       1.03563
    10  AU  2p       1.99998    1.99998    1.99998
    10  AU  3d       1.99058    1.99125    1.99706    1.99035    1.99302

    11  AU  1s       1.99917
    11  AU  2s       1.01113
    11  AU  2p       1.99999    1.99998    1.99998
    11  AU  3d       1.99046    1.98675    1.99343    1.98061    1.99264

    12  AU  1s       1.99931
    12  AU  2s       1.05383
    12  AU  2p       1.99998    1.99998    1.99998
    12  AU  3d       1.99002    1.98965    1.99696    1.99025    1.99290

    13  AU  1s       1.99937
    13  AU  2s       1.03916
    13  AU  2p       1.99998    1.99998    1.99999
    13  AU  3d       1.99439    1.99022    1.99710    1.99330    1.99238

    14  AU  1s       1.99938
    14  AU  2s       1.05037
    14  AU  2p       1.99998    1.99998    1.99999
    14  AU  3d       1.99447    1.98976    1.99698    1.99272    1.99176

    15  AU  1s       1.99932
    15  AU  2s       1.05467
    15  AU  2p       1.99998    1.99997    1.99998
    15  AU  3d       1.98612    1.99219    1.99508    1.99310    1.99346

    16  AU  1s       1.99914
    16  AU  2s       0.98474
    16  AU  2p       1.99998    1.99998    1.99999
    16  AU  3d       1.99011    1.99061    1.98815    1.99207    1.99127

    17  AU  1s       1.99932
    17  AU  2s       1.05884
    17  AU  2p       1.99998    1.99997    1.99998
    17  AU  3d       1.98721    1.99254    1.99499    1.99254    1.99329

    18  AU  1s       1.99935
    18  AU  2s       1.09907
    18  AU  2p       1.99998    1.99999    1.99999
    18  AU  3d       1.98251    1.99533    1.99533    1.98692    1.99150

    19  AU  1s       1.99903
    19  AU  2s       0.98968
    19  AU  2p       1.99999    1.99998    1.99999
    19  AU  3d       1.98976    1.98479    1.98681    1.98748    1.99008

    20  AU  1s       1.99902
    20  AU  2s       0.98332
    20  AU  2p       1.99999    1.99998    1.99999
    20  AU  3d       1.99198    1.98454    1.98679    1.98576    1.98895

    21  AU  1s       1.99935
    21  AU  2s       1.10527
    21  AU  2p       1.99998    1.99999    1.99999
    21  AU  3d       1.98189    1.99510    1.99532    1.98747    1.99133

    22  AU  1s       1.99914
    22  AU  2s       1.01065
    22  AU  2p       1.99999    1.99998    1.99999
    22  AU  3d       1.98533    1.99179    1.99196    1.98882    1.98858

    23  AU  1s       1.99897
    23  AU  2s       0.94102
    23  AU  2p       1.99998    1.99999    1.99999
    23  AU  3d       1.99014    1.98869    1.99102    1.98446    1.98683

    24  AU  1s       1.99915
    24  AU  2s       1.00514
    24  AU  2p       1.99999    1.99998    1.99999
    24  AU  3d       1.98397    1.99153    1.99182    1.98886    1.98873

    25  AU  1s       1.99921
    25  AU  2s       1.04007
    25  AU  2p       1.99998    1.99998    1.99999
    25  AU  3d       1.99045    1.98901    1.99293    1.98815    1.98834

    26  AU  1s       1.99920
    26  AU  2s       1.02164
    26  AU  2p       1.99998    1.99998    1.99999
    26  AU  3d       1.99098    1.98929    1.99301    1.98912    1.98982

    27  AU  1s       1.99944
    27  AU  2s       1.06815
    27  AU  2p       1.99998    1.99997    1.99999
    27  AU  3d       1.99359    1.99036    1.98893    1.99766    1.99924

    28  AU  1s       1.99933
    28  AU  2s       1.08453
    28  AU  2p       1.99998    1.99998    1.99998
    28  AU  3d       1.99304    1.98696    1.99171    1.99303    1.99112

    29  AU  1s       1.99934
    29  AU  2s       1.10017
    29  AU  2p       1.99998    1.99998    1.99998
    29  AU  3d       1.99199    1.98613    1.99111    1.99291    1.99093

    30  AU  1s       1.99933
    30  AU  2s       1.06893
    30  AU  2p       1.99998    1.99998    1.99998
    30  AU  3d       1.99297    1.99332    1.99328    1.98676    1.99207

    31  AU  1s       1.99913
    31  AU  2s       0.98166
    31  AU  2p       1.99998    1.99999    1.99999
    31  AU  3d       1.99388    1.98874    1.99179    1.98823    1.99200

    32  AU  1s       1.99933
    32  AU  2s       1.05656
    32  AU  2p       1.99998    1.99998    1.99998
    32  AU  3d       1.99313    1.99451    1.99360    1.98681    1.99222

    33  AU  1s       1.99934
    33  AU  2s       1.07582
    33  AU  2p       1.99999    1.99998    1.99998
    33  AU  3d       1.99349    1.99001    1.99087    1.99054    1.99190

    34  AU  1s       1.99934
    34  AU  2s       1.08135
    34  AU  2p       1.99999    1.99998    1.99998
    34  AU  3d       1.99322    1.98972    1.99092    1.99036    1.99156

    35   H  1s       0.88527

    36  CL  1s       2.00000
    36  CL  2s       1.99983
    36  CL  3s       1.97723
    36  CL  2p       2.00000    2.00000    2.00000
    36  CL  3p       1.99734    1.99865    1.35686

 Summary of localized orbital composition:   [THRPRINT= 0.020]

   ORB  GRP  ORB.ENERGY      CENTERS/CHARGES
     1   1  -100.609699     CL 36   2.000
     2   1    -9.076094     CL 36   2.000
     3   1    -6.948697     CL 36   2.000
     4   1    -6.943064     CL 36   2.000
     5   1    -6.943004     CL 36   2.000
     6   1    -3.980202     AU 23   2.000
     7   1    -3.976811     AU  4   2.000
     8   1    -3.976592     AU 16   2.000
     9   1    -3.976453     AU 20   2.000
    10   1    -3.975890     AU 19   2.000
    11   1    -3.975838     AU 24   2.000
    12   1    -3.974919     AU 22   2.000
    13   1    -3.973858     AU  8   2.000
    14   1    -3.971880     AU 26   2.000
    15   1    -3.971836     AU  5   2.000
    16   1    -3.971531     AU 11   2.000
    17   1    -3.971161     AU 25   2.000
    18   1    -3.971125     AU  7   2.000
    19   1    -3.970884     AU  3   2.000
    20   1    -3.970213     AU 12   2.000
    21   1    -3.969805     AU 31   2.000
    22   1    -3.969710     AU 10   2.000
    23   1    -3.969071     AU  1   2.000
    24   1    -3.968960     AU  2   2.000
    25   1    -3.968353     AU 14   2.000
    26   1    -3.968054     AU  9   2.000
    27   1    -3.967858     AU 34   2.000
    28   1    -3.967631     AU 33   2.000
    29   1    -3.967480     AU 32   2.000
    30   1    -3.967450     AU  6   2.000
    31   1    -3.967427     AU 28   2.000
    32   1    -3.967352     AU 13   2.000
    33   1    -3.966925     AU 17   2.000
    34   1    -3.966885     AU 15   2.000
    35   1    -3.966547     AU 30   2.000
    36   1    -3.966019     AU 29   2.000
    37   1    -3.965650     AU 27   2.000
    38   1    -3.964607     AU 21   2.000
    39   1    -3.964166     AU 18   2.000
    40   1    -2.224643     AU 23   2.000
    41   1    -2.223805     AU 23   2.000
    42   1    -2.223761     AU 23   2.000
    43   1    -2.222175     AU  4   2.000
    44   1    -2.222171     AU  4   2.000
    45   1    -2.219960     AU 20   2.000
    46   1    -2.219799     AU 16   2.000
    47   1    -2.219703     AU 20   2.000
    48   1    -2.219691     AU 16   2.000
    49   1    -2.219522     AU 19   2.000
    50   1    -2.219353     AU 19   2.000
    51   1    -2.219147     AU 20   2.000
    52   1    -2.219039     AU 24   2.000
    53   1    -2.218910     AU 24   2.000
    54   1    -2.218698     AU 22   2.000
    55   1    -2.218571     AU 22   2.000
    56   1    -2.218470     AU 19   2.000
    57   1    -2.218242     AU 31   2.000
    58   1    -2.218237     AU  7   2.000
    59   1    -2.217902     AU 31   2.000
    60   1    -2.217307     AU  8   2.000
    61   1    -2.216607     AU  4   2.000
    62   1    -2.216501     AU  8   2.000
    63   1    -2.216459     AU  7   2.000
    64   1    -2.216171     AU 26   2.000
    65   1    -2.215860     AU 16   2.000
    66   1    -2.215668     AU  3   2.000
    67   1    -2.215395     AU 11   2.000
    68   1    -2.215284     AU  5   2.000
    69   1    -2.215168     AU  7   2.000
    70   1    -2.215121     AU 25   2.000
    71   1    -2.215057     AU 24   2.000
    72   1    -2.214691     AU 26   2.000
    73   1    -2.214629     AU 22   2.000
    74   1    -2.214618     AU 31   2.000
    75   1    -2.214590     AU 11   2.000
    76   1    -2.213676     AU  3   2.000
    77   1    -2.213540     AU 25   2.000
    78   1    -2.213417     AU 12   2.000
    79   1    -2.213389     AU  5   2.000
    80   1    -2.213343     AU  3   2.000
    81   1    -2.213121     AU 10   2.000
    82   1    -2.213099     AU  5   2.000
    83   1    -2.213074     AU  8   2.000
    84   1    -2.211907     AU 13   2.000
    85   1    -2.211654     AU 26   2.000
    86   1    -2.211643     AU  2   2.000
    87   1    -2.211598     AU  1   2.000
    88   1    -2.211503     AU 33   2.000
    89   1    -2.210937     AU 25   2.000
    90   1    -2.210729     AU 34   2.000
    91   1    -2.210442     AU 12   2.000
    92   1    -2.210432     AU 15   2.000
    93   1    -2.210417     AU 32   2.000
    94   1    -2.210148     AU 11   2.000
    95   1    -2.210036     AU 33   2.000
    96   1    -2.209944     AU 10   2.000
    97   1    -2.209937     AU 17   2.000
    98   1    -2.209817     AU  9   2.000
    99   1    -2.209778     AU 30   2.000
   100   1    -2.209756     AU 14   2.000
   101   1    -2.209497     AU  1   2.000
   102   1    -2.209357     AU  6   2.000
   103   1    -2.209324     AU 32   2.000
   104   1    -2.209187     AU  2   2.000
   105   1    -2.209152     AU 12   2.000
   106   1    -2.209112     AU  2   2.000
   107   1    -2.209083     AU 28   2.000
   108   1    -2.208811     AU  1   2.000
   109   1    -2.208633     AU 34   2.000
   110   1    -2.208488     AU 10   2.000
   111   1    -2.208275     AU 13   2.000
   112   1    -2.208258     AU 27   2.000
   113   1    -2.208158     AU 15   2.000
   114   1    -2.208129     AU 30   2.000
   115   1    -2.207987     AU 15   2.000
   116   1    -2.207781     AU 32   2.000
   117   1    -2.207765     AU 29   2.000
   118   1    -2.207632     AU 17   2.000
   119   1    -2.207603     AU 30   2.000
   120   1    -2.207590     AU 17   2.000
   121   1    -2.207548     AU 34   2.000
   122   1    -2.207439     AU 14   2.000
   123   1    -2.207382     AU 33   2.000
   124   1    -2.207010     AU  9   2.000
   125   1    -2.206695     AU 28   2.000
   126   1    -2.206167     AU 13   2.000
   127   1    -2.206084     AU  6   2.000
   128   1    -2.205844     AU 18   2.000
   129   1    -2.205586     AU 28   2.000
   130   1    -2.205449     AU 29   2.000
   131   1    -2.205442     AU 27   2.000
   132   1    -2.205427     AU 27   2.000
   133   1    -2.205327     AU 21   2.000
   134   1    -2.205249     AU 18   2.000
   135   1    -2.205131     AU  9   2.000
   136   1    -2.205074     AU 14   2.000
   137   1    -2.204904     AU  6   2.000
   138   1    -2.204364     AU 29   2.000
   139   1    -2.203194     AU 21   2.000
   140   1    -2.202898     AU 18   2.000
   141   1    -2.202598     AU 21   2.000
   142   1    -0.703816     CL 36   1.999
   143   1    -0.331866     CL 36   1.308   H 35   0.629   (other: 0.063)
   144   1    -0.281726     AU  7   1.922   H 35   0.040   (other: 0.038)
   145   1    -0.275290     AU 23   1.978   (other: 0.022)
   146   1    -0.274965     AU 23   1.988
   147   1    -0.274911     AU 31   1.997
   148   1    -0.274700     AU 23   1.991
   149   1    -0.274603     AU 23   1.992
   150   1    -0.274455     AU 23   1.992
   151   1    -0.274438     AU  4   1.994
   152   1    -0.273734     AU  4   1.984
   153   1    -0.273368     AU  4   1.994
   154   1    -0.273296     AU  4   1.984
   155   1    -0.272828     AU 16   1.993
   156   1    -0.272567     AU  4   1.995
   157   1    -0.271463     AU 24   1.992
   158   1    -0.271263     AU 22   1.993
   159   1    -0.271190     AU 16   1.988
   160   1    -0.271188     AU 20   1.980   (other: 0.020)
   161   1    -0.270984     AU 19   1.979   (other: 0.021)
   162   1    -0.270893     AU 16   1.986
   163   1    -0.270823     AU 20   1.981
   164   1    -0.270461     AU 19   1.982
   165   1    -0.270154     AU 24   1.984
   166   1    -0.270116     AU 20   1.991
   167   1    -0.270108     AU 24   1.982
   168   1    -0.270093     AU 20   1.992
   169   1    -0.270047     AU 31   1.993
   170   1    -0.270022     AU 19   1.992
   171   1    -0.269991     AU 16   1.993
   172   1    -0.269965     AU 16   1.993
   173   1    -0.269928     AU 22   1.983
   174   1    -0.269907     AU 20   1.994
   175   1    -0.269862     AU 22   1.984
   176   1    -0.269811     AU 13   1.994
   177   1    -0.269715     AU 31   1.988
   178   1    -0.269664     AU 19   1.991
   179   1    -0.269649     AU 11   1.993
   180   1    -0.269588     AU 19   1.993
   181   1    -0.269579     AU 31   1.987
   182   1    -0.269184     AU 34   1.995
   183   1    -0.269128     AU 22   1.994
   184   1    -0.269119     AU 15   1.997
   185   1    -0.269016     AU 15   1.996
   186   1    -0.268990     AU 33   1.995
   187   1    -0.268890     AU 24   1.993
   188   1    -0.268875     AU 26   1.991
   189   1    -0.268867     AU 24   1.994
   190   1    -0.268594     AU 22   1.994
   191   1    -0.268476     AU 31   1.993
   192   1    -0.268219     AU  3   1.982
   193   1    -0.268096     AU  8   1.978   (other: 0.022)
   194   1    -0.268081     AU 14   1.996
   195   1    -0.268081     AU  9   1.993
   196   1    -0.267976     AU  5   1.981
   197   1    -0.267861     AU  7   1.992
   198   1    -0.267837     AU  1   1.997
   199   1    -0.267714     AU  2   1.997
   200   1    -0.267692     AU  8   1.982
   201   1    -0.267628     AU  3   1.998
   202   1    -0.267604     AU  8   1.990
   203   1    -0.267466     AU 26   1.987
   204   1    -0.267451     AU 32   1.995
   205   1    -0.267328     AU 17   1.994
   206   1    -0.267314     AU  3   1.988
   207   1    -0.267234     AU 25   1.990
   208   1    -0.267202     AU 26   1.985
   209   1    -0.267139     AU  7   1.981
   210   1    -0.267125     AU 17   1.997
   211   1    -0.267086     AU 30   1.994
   212   1    -0.267077     AU  5   1.998
   213   1    -0.267052     AU 11   1.979   (other: 0.021)
   214   1    -0.266942     AU  5   1.987
   215   1    -0.266765     AU  7   1.994
   216   1    -0.266761     AU  3   1.995
   217   1    -0.266758     AU 11   1.986
   218   1    -0.266757     AU  8   1.994
   219   1    -0.266491     AU  3   1.993
   220   1    -0.266431     AU  8   1.992
   221   1    -0.266426     AU 12   1.991
   222   1    -0.266413     AU 30   1.998
   223   1    -0.266367     AU  5   1.995
   224   1    -0.266322     AU 25   1.986
   225   1    -0.266258     AU  7   1.977   (other: 0.023)
   226   1    -0.266195     AU 25   1.984
   227   1    -0.266162     AU  6   1.996
   228   1    -0.266132     AU 17   1.995
   229   1    -0.266063     AU  1   1.988
   230   1    -0.265998     AU  5   1.993
   231   1    -0.265948     AU 26   1.996
   232   1    -0.265915     AU 10   1.992
   233   1    -0.265738     AU 11   1.994
   234   1    -0.265577     AU 26   1.994
   235   1    -0.265566     AU 12   1.991
   236   1    -0.265490     AU  2   1.987
   237   1    -0.265455     AU  2   1.987
   238   1    -0.265415     AU 28   1.993
   239   1    -0.265407     AU 15   1.989
   240   1    -0.265300     AU 28   1.997
   241   1    -0.265237     AU  6   1.993
   242   1    -0.265162     AU 11   1.993
   243   1    -0.265135     AU 10   1.992
   244   1    -0.265121     AU 33   1.988
   245   1    -0.265093     AU  1   1.986
   246   1    -0.264956     AU 13   1.993
   247   1    -0.264889     AU 25   1.996
   248   1    -0.264848     AU 12   1.988
   249   1    -0.264782     AU 32   1.990
   250   1    -0.264618     AU 32   1.997
   251   1    -0.264576     AU 10   1.989
   252   1    -0.264548     AU 34   1.988
   253   1    -0.264507     AU 13   1.988
   254   1    -0.264502     AU 17   1.988
   255   1    -0.264435     AU 29   1.997
   256   1    -0.264337     AU 25   1.994
   257   1    -0.264277     AU 30   1.989
   258   1    -0.264269     AU 29   1.993
   259   1    -0.264261     AU 14   1.992
   260   1    -0.264256     AU 13   1.993
   261   1    -0.264229     AU 15   1.984
   262   1    -0.264180     AU 18   1.996
   263   1    -0.264174     AU 15   1.993
   264   1    -0.264141     AU 17   1.987
   265   1    -0.264087     AU  9   1.993
   266   1    -0.264027     AU 12   1.992
   267   1    -0.263828     AU 33   1.982
   268   1    -0.263766     AU  9   1.987
   269   1    -0.263713     AU  1   1.992
   270   1    -0.263664     AU 10   1.993
   271   1    -0.263645     AU 14   1.986
   272   1    -0.263644     AU  2   1.991
   273   1    -0.263636     AU 33   1.998
   274   1    -0.263554     AU 32   1.985
   275   1    -0.263516     AU 33   1.992
   276   1    -0.263403     AU 14   1.992
   277   1    -0.263403     AU  6   1.987
   278   1    -0.263351     AU 34   1.982
   279   1    -0.263241     AU 30   1.985
   280   1    -0.263224     AU 32   1.993
   281   1    -0.263198     AU  1   2.000
   282   1    -0.263065     AU 34   1.998
   283   1    -0.262936     AU 34   1.992
   284   1    -0.262759     AU  2   2.000
   285   1    -0.262735     AU  9   1.992
   286   1    -0.262734     AU 30   1.993
   287   1    -0.262656     AU 28   1.991
   288   1    -0.262426     AU 28   1.992
   289   1    -0.262347     AU 12   2.000
   290   1    -0.262320     AU 27   1.990
   291   1    -0.262292     AU 28   1.982
   292   1    -0.262283     AU 27   1.991
   293   1    -0.262175     AU 13   2.000
   294   1    -0.262005     AU 21   1.996
   295   1    -0.261854     AU 10   2.000
   296   1    -0.261753     AU  6   1.992
   297   1    -0.261705     AU 21   1.997
   298   1    -0.261502     AU  9   2.000
   299   1    -0.261408     AU 29   1.990
   300   1    -0.261183     AU 14   2.000
   301   1    -0.260942     AU 29   1.981
   302   1    -0.260884     AU 18   1.997
   303   1    -0.260808     AU 29   1.991
   304   1    -0.260624     AU  6   2.000
   305   1    -0.259905     AU 27   1.989
   306   1    -0.259674     AU 18   1.986
   307   1    -0.259546     AU 27   2.000
   308   1    -0.259481     AU 18   1.980   (other: 0.020)
   309   1    -0.259197     AU 27   2.000
   310   1    -0.259146     AU 21   1.986
   311   1    -0.258948     AU 18   1.992
   312   1    -0.258914     AU 21   1.980   (other: 0.020)
   313   1    -0.258477     AU 21   1.992
   314   1    -0.257512     AU 19   0.806  AU 20   0.357  AU 23   0.143  AU 16   0.100  AU  4   0.086  AU 22   0.068  AU 25   0.066  AU 11   0.063  AU 31   0.063  AU 14   0.046  AU 30   0.040  AU 24   0.032  AU 29   0.028  AU 10   0.022  AU 18   0.020   (other: 0.060)
   315   1    -0.253933     AU  7   1.111   H 35   0.177  AU 11   0.113  AU 18   0.086  AU  3   0.085  AU  4   0.073  AU 21   0.058  AU 10   0.055  AU 20   0.044  AU 19   0.023  AU 13   0.021   (other: 0.153)
   316   1    -0.250001     AU 22   0.323  AU 25   0.318  AU 23   0.297  AU 24   0.203  AU  3   0.164  AU 10   0.147  AU  4   0.132  AU 26   0.107  AU 31   0.087  AU 14   0.070  AU 11   0.056  AU  5   0.055   (other: 0.042)
   317   1    -0.244696     AU 15   0.888  AU  3   0.357  AU 18   0.210  AU  1   0.193  AU 31   0.083  AU 20   0.039  AU 11   0.038  AU 16   0.029  AU 25   0.028   (other: 0.134)
   318   1    -0.244382     AU 12   0.909  AU 14   0.419  AU 11   0.155  AU 26   0.115  AU  5   0.086  AU  9   0.051  AU 25   0.043  AU 24   0.036  AU  1   0.025  AU 29   0.022   (other: 0.138)
   319   1    -0.243364     AU  8   0.918  AU  5   0.220  AU  4   0.115  AU 20   0.115  AU 11   0.082  AU 21   0.080  AU 14   0.079  AU 18   0.076  AU 23   0.068  AU 29   0.042  AU  1   0.036  AU 16   0.032  AU 25   0.022   (other: 0.117)
   320   1    -0.242675     AU 33   0.946  AU 31   0.217  AU 25   0.179  AU 24   0.167  AU 22   0.111  AU 30   0.058  AU  3   0.048  AU 23   0.046  AU  1   0.043  AU 29   0.027  AU 34   0.027  AU  9   0.025  AU 26   0.022   (other: 0.083)
   321   1    -0.241637     AU  2   0.973  AU  1   0.308  AU  4   0.221  AU 16   0.093  AU 30   0.089  AU  5   0.074  AU 29   0.034  AU  3   0.027  AU 22   0.024  AU 10   0.021   (other: 0.135)
   322   1    -0.241375     AU 32   0.985  AU 29   0.229  AU 24   0.124  AU 21   0.123  AU 31   0.119  AU  1   0.102  AU 20   0.075  AU  5   0.054  AU 16   0.028  AU 19   0.026  AU 30   0.024  AU  3   0.020   (other: 0.089)
   323   1    -0.241211     AU 17   0.973  AU 21   0.219  AU  5   0.195  AU  1   0.102  AU 29   0.101  AU 20   0.082  AU 16   0.048  AU  4   0.043  AU 14   0.039  AU 11   0.035  AU 24   0.033   (other: 0.131)
   324   1    -0.241081     CL 36   1.998
   325   1    -0.240808     AU  9   0.853  AU 21   0.373  AU 24   0.169  AU  5   0.152  AU 11   0.099  AU 18   0.083  AU 23   0.053  AU 29   0.048  AU 12   0.033  AU 26   0.027  AU 10   0.026   (other: 0.084)
   326   1    -0.240477     AU 28   0.993  AU 29   0.157  AU 30   0.155  AU 31   0.140  AU 16   0.116  AU  3   0.091  AU 15   0.044  AU 23   0.037  AU 20   0.032  AU 14   0.029  AU  1   0.029  AU 10   0.028  AU  4   0.027  AU 22   0.024   (other: 0.096)
   327   1    -0.239927     AU 13   0.938  AU 10   0.366  AU 11   0.187  AU 14   0.185  AU 26   0.063  AU 31   0.042  AU  5   0.033  AU 25   0.032  AU 24   0.029  AU 29   0.026  AU 20   0.021   (other: 0.078)
   328   1    -0.239808     AU 34   0.964  AU 26   0.208  AU 22   0.163  AU 24   0.126  AU 23   0.097  AU 31   0.096  AU 29   0.084  AU  5   0.040  AU 30   0.036  AU  1   0.034  AU 25   0.030  AU 33   0.030   (other: 0.092)
   329   1    -0.239186     AU 30   0.585  AU 16   0.407  AU 18   0.288  AU 29   0.165  AU 20   0.099  AU  1   0.080  AU  4   0.073  AU 21   0.056  AU 22   0.053  AU  5   0.048  AU 25   0.046  AU 10   0.027  AU 14   0.024   (other: 0.050)
   330   1    -0.237747     AU  6   0.952  AU 18   0.232  AU 10   0.163  AU 22   0.137  AU  3   0.109  AU 21   0.081  AU 11   0.064  AU 29   0.059  AU 23   0.050  AU  1   0.046   (other: 0.107)
   331   1    -0.236083     CL 36   1.998
   332   1    -0.234422     AU 27   0.987  AU 26   0.358  AU 25   0.219  AU 10   0.082  AU  4   0.079  AU 14   0.077  AU 11   0.041  AU  3   0.025   (other: 0.132)

 Localized orbitals saved to record      2100.2  (orbital set 2)


 **********************************************************************************************************************************
 DATASETS  * FILE   NREC   LENGTH (MB)   RECORD NAMES
              1      21      122.74       500      610      700      900      950      970     1000      129      960     1100   
                                          VAR    BASINP    GEOM    SYMINP    ZMAT    AOBASIS   BASIS     P2S    ABASIS      S 
                                         1400     1410     1420     1200     1210     1080     1700     1600     1650     1800   
                                           T        V       ECP      H0       H01     AOSYM    OPER      SMH    MOLCAS    GRID   
                                          960(1)
                                        ABASIS    

              2       5       58.88       700     1000      520     1800     2100   
                                         GEOM     BASIS   MCVARS    GRID      RKS  

 PROGRAMS   *        TOTAL      IBBA       POP        KS       INT
 CPU TIMES  *       361.82      8.14      0.17    144.54    208.72
 REAL TIME  *       440.44 SEC
 DISK USED  *         9.55 GB      
 SF USED    *        61.79 MB      
 GA USED    *        42.37 MB       (max)      42.37 MB       (current)
 **********************************************************************************************************************************

 IBBA/USERDEF energy=      0.000000000000

        DF-KS   
  -5076.19703264
 **********************************************************************************************************************************
 Variable memory released
